REMARK SMILES CC(F)(F)c1ncc(C(=O)N[C@H](CCS(C)(=O)=O)C2CC2)c(Oc2ccccc2)n1
REMARK SMILES IDX 12 1 11 2 9 3 10 4 8 6 5 7 6 8 30 9 7 10 22 11 2 12 1 13
REMARK SMILES IDX 3 14 4 15 23 16 24 17 25 18 29 19 26 20 28 21 27 22 13 23
REMARK SMILES IDX 14 24 15 25 17 26 18 27 16 28 19 29 20 30 21 31
REMARK H PARENT 11 5
ROOT
ATOM      1  C   UNL     1       2.102   0.233  -1.357  1.00  0.00     0.086 C 
ENDROOT
BRANCH   1   2
ATOM      2  N   UNL     1       0.838  -0.452  -1.112  1.00  0.00    -0.349 N 
ATOM      3  C   UNL     1       0.790  -1.684  -0.495  1.00  0.00     0.258 C 
ATOM      4  O   UNL     1       1.804  -2.323  -0.229  1.00  0.00    -0.269 OA
ATOM      5  H   UNL     1      -0.011   0.095  -1.204  1.00  0.00     0.164 HD
BRANCH   3   6
ATOM      6  C   UNL     1      -0.531  -2.244  -0.136  1.00  0.00     0.120 A 
ATOM      7  C   UNL     1      -2.890  -3.455   0.586  1.00  0.00     0.201 A 
ATOM      8  N   UNL     1      -1.738  -4.142   0.747  1.00  0.00    -0.235 NA
ATOM      9  N   UNL     1      -2.930  -2.190   0.118  1.00  0.00    -0.191 NA
ATOM     10  C   UNL     1      -0.592  -3.524   0.374  1.00  0.00     0.133 A 
ATOM     11  C   UNL     1      -1.753  -1.611  -0.223  1.00  0.00     0.235 A 
BRANCH   7  12
ATOM     12  C   UNL     1      -4.204  -4.111   1.011  1.00  0.00     0.303 C 
ATOM     13  C   UNL     1      -4.587  -3.660   2.411  1.00  0.00     0.096 C 
ATOM     14  F   UNL     1      -4.149  -5.480   1.019  1.00  0.00    -0.198 F 
ATOM     15  F   UNL     1      -5.247  -3.808   0.176  1.00  0.00    -0.198 F 
ENDBRANCH   7  12
BRANCH  11  16
ATOM     16  O   UNL     1      -1.806  -0.322  -0.736  1.00  0.00    -0.438 OA
BRANCH  16  17
ATOM     17  C   UNL     1      -2.745   0.509  -0.175  1.00  0.00     0.129 A 
ATOM     18  C   UNL     1      -3.777   0.980  -0.985  1.00  0.00     0.047 A 
ATOM     19  C   UNL     1      -2.621   0.945   1.146  1.00  0.00     0.047 A 
ATOM     20  C   UNL     1      -4.716   1.868  -0.458  1.00  0.00     0.004 A 
ATOM     21  C   UNL     1      -3.561   1.834   1.668  1.00  0.00     0.004 A 
ATOM     22  C   UNL     1      -4.609   2.292   0.867  1.00  0.00     0.000 A 
ENDBRANCH  16  17
ENDBRANCH  11  16
ENDBRANCH   3   6
ENDBRANCH   1   2
BRANCH   1  23
ATOM     23  C   UNL     1       2.507   0.985  -0.081  1.00  0.00     0.041 C 
BRANCH  23  24
ATOM     24  C   UNL     1       4.015   1.165   0.043  1.00  0.00     0.139 C 
BRANCH  24  25
ATOM     25  S   UNL     1       4.425   2.153   1.473  1.00  0.00     0.147 S 
ATOM     26  O   UNL     1       4.005   3.515   1.204  1.00  0.00    -0.229 OA
ATOM     27  O   UNL     1       3.972   1.453   2.659  1.00  0.00    -0.229 OA
ATOM     28  C   UNL     1       6.200   2.129   1.477  1.00  0.00     0.158 C 
ENDBRANCH  24  25
ENDBRANCH  23  24
ENDBRANCH   1  23
BRANCH   1  29
ATOM     29  C   UNL     1       1.915   1.092  -2.591  1.00  0.00     0.011 C 
ATOM     30  C   UNL     1       3.114   1.502  -3.417  1.00  0.00     0.006 C 
ATOM     31  C   UNL     1       2.310   2.549  -2.704  1.00  0.00     0.006 C 
ENDBRANCH   1  29
TORSDOF 9
