REMARK SMILES O=C(NCc1ccc(Oc2ccccc2)cc1)c1cnc2ccccn12
REMARK SMILES IDX 5 1 6 2 7 3 8 4 16 5 17 6 4 7 3 8 1 9 2 10 18 12 19 13 26 14
REMARK SMILES IDX 20 15 25 16 21 17 24 18 22 19 23 20 9 21 10 22 11 23 15 24
REMARK SMILES IDX 12 25 14 26 13 27
REMARK H PARENT 3 11
ROOT
ATOM      1  C   UNL     1      -0.493  -1.224  -0.307  1.00  0.00    -0.029 A 
ATOM      2  C   UNL     1      -1.415  -1.319   0.746  1.00  0.00     0.009 A 
ATOM      3  C   UNL     1      -2.454  -0.393   0.863  1.00  0.00     0.047 A 
ATOM      4  C   UNL     1      -2.583   0.631  -0.079  1.00  0.00     0.127 A 
ATOM      5  C   UNL     1      -1.654   0.753  -1.111  1.00  0.00     0.047 A 
ATOM      6  C   UNL     1      -0.616  -0.173  -1.228  1.00  0.00     0.009 A 
ENDROOT
BRANCH   1   7
ATOM      7  C   UNL     1       0.646  -2.204  -0.422  1.00  0.00     0.152 C 
BRANCH   7   8
ATOM      8  N   UNL     1       1.841  -1.675   0.196  1.00  0.00    -0.347 N 
ATOM      9  O   UNL     1       2.789  -1.033  -1.769  1.00  0.00    -0.268 OA
ATOM     10  C   UNL     1       2.831  -1.063  -0.543  1.00  0.00     0.270 C 
ATOM     11  H   UNL     1       1.800  -1.507   1.190  1.00  0.00     0.164 HD
BRANCH  10  12
ATOM     12  C   UNL     1       3.890  -0.466   0.234  1.00  0.00     0.131 A 
ATOM     13  C   UNL     1       4.221  -0.633   1.570  1.00  0.00     0.146 A 
ATOM     14  N   UNL     1       4.845   0.422  -0.241  1.00  0.00    -0.295 N 
ATOM     15  N   UNL     1       5.306   0.114   1.934  1.00  0.00    -0.236 NA
ATOM     16  C   UNL     1       5.034   0.972  -1.514  1.00  0.00     0.093 C 
ATOM     17  C   UNL     1       5.671   0.740   0.839  1.00  0.00     0.137 A 
ATOM     18  C   UNL     1       6.044   1.833  -1.725  1.00  0.00     0.018 C 
ATOM     19  C   UNL     1       6.740   1.653   0.607  1.00  0.00     0.048 C 
ATOM     20  C   UNL     1       6.920   2.178  -0.620  1.00  0.00     0.005 C 
ENDBRANCH  10  12
ENDBRANCH   7   8
ENDBRANCH   1   7
BRANCH   4  21
ATOM     21  O   UNL     1      -3.560   1.596   0.000  1.00  0.00    -0.457 OA
BRANCH  21  22
ATOM     22  C   UNL     1      -4.850   1.171   0.225  1.00  0.00     0.127 A 
ATOM     23  C   UNL     1      -5.444   0.141  -0.510  1.00  0.00     0.047 A 
ATOM     24  C   UNL     1      -5.589   1.866   1.182  1.00  0.00     0.047 A 
ATOM     25  C   UNL     1      -6.768  -0.216  -0.256  1.00  0.00     0.004 A 
ATOM     26  C   UNL     1      -6.913   1.507   1.434  1.00  0.00     0.004 A 
ATOM     27  C   UNL     1      -7.501   0.464   0.718  1.00  0.00     0.000 A 
ENDBRANCH  21  22
ENDBRANCH   4  21
TORSDOF 5
