REMARK SMILES C[C@@H](Nc1nc(N[C@H](C)C(F)(F)F)nc(-c2cccc(Cl)n2)n1)C(F)(F)F
REMARK SMILES IDX 4 1 5 2 6 3 14 4 15 5 23 6 3 7 2 9 1 10 24 11 25 12 26 13
REMARK SMILES IDX 27 14 7 15 8 17 9 18 10 19 11 20 12 21 13 22 16 23 17 24
REMARK SMILES IDX 22 25 18 26 20 27 19 28 21 29
REMARK H PARENT 3 8 7 16
ROOT
ATOM      1  C   UNL     1       1.019  -1.315   0.106  1.00  0.00     0.228 A 
ATOM      2  N   UNL     1      -0.199  -1.837   0.110  1.00  0.00    -0.177 NA
ATOM      3  C   UNL     1      -1.194  -0.995   0.338  1.00  0.00     0.228 A 
ATOM      4  N   UNL     1      -1.047   0.306   0.532  1.00  0.00    -0.191 NA
ATOM      5  C   UNL     1       0.214   0.745   0.502  1.00  0.00     0.185 A 
ATOM      6  N   UNL     1       1.274  -0.033   0.288  1.00  0.00    -0.191 NA
ENDROOT
BRANCH   1   7
ATOM      7  N   UNL     1       2.054  -2.200  -0.115  1.00  0.00    -0.343 N 
ATOM      8  H   UNL     1       1.692  -3.063  -0.508  1.00  0.00     0.164 HD
BRANCH   7   9
ATOM      9  C   UNL     1       3.311  -1.680  -0.687  1.00  0.00     0.184 C 
ATOM     10  C   UNL     1       3.116  -1.376  -2.176  1.00  0.00     0.041 C 
BRANCH   9  11
ATOM     11  C   UNL     1       4.474  -2.680  -0.516  1.00  0.00     0.408 C 
ATOM     12  F   UNL     1       4.720  -2.950   0.786  1.00  0.00    -0.169 F 
ATOM     13  F   UNL     1       4.204  -3.856  -1.133  1.00  0.00    -0.169 F 
ATOM     14  F   UNL     1       5.621  -2.198  -1.050  1.00  0.00    -0.169 F 
ENDBRANCH   9  11
ENDBRANCH   7   9
ENDBRANCH   1   7
BRANCH   3  15
ATOM     15  N   UNL     1      -2.461  -1.563   0.366  1.00  0.00    -0.343 N 
ATOM     16  H   UNL     1      -2.354  -2.493  -0.035  1.00  0.00     0.164 HD
BRANCH  15  17
ATOM     17  C   UNL     1      -3.543  -0.749  -0.231  1.00  0.00     0.184 C 
ATOM     18  C   UNL     1      -4.302  -0.035   0.888  1.00  0.00     0.041 C 
BRANCH  17  19
ATOM     19  C   UNL     1      -4.522  -1.597  -1.068  1.00  0.00     0.408 C 
ATOM     20  F   UNL     1      -3.860  -2.253  -2.052  1.00  0.00    -0.169 F 
ATOM     21  F   UNL     1      -5.157  -2.527  -0.321  1.00  0.00    -0.169 F 
ATOM     22  F   UNL     1      -5.463  -0.827  -1.659  1.00  0.00    -0.169 F 
ENDBRANCH  17  19
ENDBRANCH  15  17
ENDBRANCH   3  15
BRANCH   5  23
ATOM     23  C   UNL     1       0.445   2.196   0.707  1.00  0.00     0.110 A 
ATOM     24  C   UNL     1      -0.563   3.045   1.180  1.00  0.00     0.032 A 
ATOM     25  N   UNL     1       1.684   2.676   0.409  1.00  0.00    -0.233 NA
ATOM     26  C   UNL     1      -0.299   4.403   1.355  1.00  0.00     0.006 A 
ATOM     27  C   UNL     1       1.906   3.991   0.590  1.00  0.00     0.129 A 
ATOM     28  C   UNL     1       0.965   4.891   1.054  1.00  0.00     0.041 A 
ATOM     29  Cl  UNL     1       3.492   4.509   0.189  1.00  0.00    -0.062 Cl
ENDBRANCH   5  23
TORSDOF 7
